#INFO: **** input file is /Users/esmaboydas/Desktop/pyscf/glycine.py ****
#!/usr/bin/env python

import pyscf
from pyscf.dft import KS


mol = pyscf.M(
    atom = '''
O        0.000000    0.000000    0.117790
H        0.000000    0.755453   -0.471161
H        0.000000   -0.755453   -0.471161''',
    basis = 'def2-tzvp', output='glycine.log', verbose=4)


mf = mol.KS()
mf.xc = 'pbe'
#mf.nlc = False
mf.kernel()

#INFO: ******************** input file end ********************


System: uname_result(system='Darwin', node='Esmas-MacBook-Pro.local', release='23.6.0', version='Darwin Kernel Version 23.6.0: Mon Jul 29 21:14:21 PDT 2024; root:xnu-10063.141.2~1/RELEASE_ARM64_T8103', machine='x86_64')  Threads 1
Python 3.11.3 (main, May 15 2023, 10:43:03) [Clang 14.0.6 ]
numpy 1.23.5  scipy 1.10.1
Date: Wed Aug 21 11:47:53 2024
PySCF version 2.2.1
PySCF path  /Users/esmaboydas/opt/anaconda3/envs/reactivity/lib/python3.11/site-packages/pyscf

[CONFIG] conf_file None
[INPUT] verbose = 4
[INPUT] num. atoms = 3
[INPUT] num. electrons = 10
[INPUT] charge = 0
[INPUT] spin (= nelec alpha-beta = 2S) = 0
[INPUT] symmetry False subgroup None
[INPUT] Mole.unit = angstrom
[INPUT] Symbol           X                Y                Z      unit          X                Y                Z       unit  Magmom
[INPUT]  1 O      0.000000000000   0.000000000000   0.117790000000 AA    0.000000000000   0.000000000000   0.222590840213 Bohr   0.0
[INPUT]  2 H      0.000000000000   0.755453000000  -0.471161000000 AA    0.000000000000   1.427599269981  -0.890365250576 Bohr   0.0
[INPUT]  3 H      0.000000000000  -0.755453000000  -0.471161000000 AA    0.000000000000  -1.427599269981  -0.890365250576 Bohr   0.0

nuclear repulsion = 9.18919322930975
number of shells = 19
number of NR pGTOs = 62
number of NR cGTOs = 43
basis = def2-tzvp
ecp = {}
CPU time:         2.34


******** <class 'pyscf.dft.rks.RKS'> ********
method = RKS
initial guess = minao
damping factor = 0
level_shift factor = 0
DIIS = <class 'pyscf.scf.diis.CDIIS'>
diis_start_cycle = 1
diis_space = 8
SCF conv_tol = 1e-09
SCF conv_tol_grad = None
SCF max_cycles = 50
direct_scf = True
direct_scf_tol = 1e-13
chkfile to save SCF result = /var/folders/hm/qddh1h5s3x95vmxww09jjtkc0000gn/T/tmpkhr1jz_0
max_memory 4000 MB (current use 0 MB)
XC library pyscf.dft.libxc version 6.1.0
    S. Lehtola, C. Steigemann, M. J.T. Oliveira, and M. A.L. Marques.,  SoftwareX 7, 1–5 (2018)
XC functionals = pbe
    J. P. Perdew, K. Burke, and M. Ernzerhof.,  Phys. Rev. Lett. 77, 3865 (1996)
    J. P. Perdew, K. Burke, and M. Ernzerhof.,  Phys. Rev. Lett. 78, 1396 (1997)
    J. P. Perdew, K. Burke, and M. Ernzerhof.,  Phys. Rev. Lett. 77, 3865 (1996)
    J. P. Perdew, K. Burke, and M. Ernzerhof.,  Phys. Rev. Lett. 78, 1396 (1997)
radial grids: 
    Treutler-Ahlrichs [JCP 102, 346 (1995); DOI:10.1063/1.469408] (M4) radial grids
    
becke partition: Becke, JCP 88, 2547 (1988); DOI:10.1063/1.454033
pruning grids: <function nwchem_prune at 0x16fa6bf60>
grids dens level: 3
symmetrized grids: False
atomic radii adjust function: <function treutler_atomic_radii_adjust at 0x16fa6bec0>
small_rho_cutoff = 1e-07
Set gradient conv threshold to 3.16228e-05
tot grids = 34312
init E= -76.332621766353
  HOMO = -0.403022009881149  LUMO = -0.0218320033998619
cycle= 1 E= -76.2667903794994  delta_E= 0.0658  |g|= 0.789  |ddm|= 0.971
  HOMO = -0.0718690831627454  LUMO = 0.0377021486576664
cycle= 2 E= -75.9293482100301  delta_E= 0.337  |g|= 1.54  |ddm|= 1.32
  HOMO = -0.269047124426364  LUMO = -0.00452414451391197
cycle= 3 E= -76.3760002120524  delta_E= -0.447  |g|= 0.0454  |ddm|= 0.986
  HOMO = -0.255635350329047  LUMO = 0.000165604140823694
cycle= 4 E= -76.3764241708732  delta_E= -0.000424  |g|= 0.00983  |ddm|= 0.0326
  HOMO = -0.256409853397157  LUMO = -0.000807021102565497
cycle= 5 E= -76.3764394690165  delta_E= -1.53e-05  |g|= 0.0015  |ddm|= 0.00411
  HOMO = -0.256695340744267  LUMO = -0.0009146535460289
cycle= 6 E= -76.3764398982149  delta_E= -4.29e-07  |g|= 3.27e-05  |ddm|= 0.000912
  HOMO = -0.256698120128637  LUMO = -0.000917172808008208
cycle= 7 E= -76.3764398984035  delta_E= -1.89e-10  |g|= 1.78e-06  |ddm|= 2.03e-05
  HOMO = -0.256697364164092  LUMO = -0.000916713863618052
Extra cycle  E= -76.376439898404  delta_E= -5.12e-13  |g|= 1.04e-06  |ddm|= 1.72e-06
converged SCF energy = -76.376439898404
